20
Properties=species:S:1:pos:R:3:momenta:R:3:forces:R:3 Energy=0.0 kcal/mol=T energy=-0.3596633427668944 pbc="F F F"
C       -0.95671174       2.73940642       4.27069074      -0.01446104       0.02909378      -0.06377322      -0.00000211       0.00001192      -0.00002429
O       -0.21784860       2.83265895       3.42314641      -0.00422950       0.18369332      -0.06416714       0.00000541      -0.00001232      -0.00002512
C       -0.74861854      -1.25697256       1.97402032       0.04122520      -0.05189964      -0.02250977       0.00001338       0.00002777      -0.00002021
O       -0.69246508      -0.42727227       2.73654534      -0.11412648      -0.07678306       0.01197640       0.00001570       0.00002457      -0.00001899
C        0.92179064      -0.59838186       5.85100533       0.03572332       0.07942103       0.01311222      -0.00003539      -0.00008931      -0.00002023
O        1.29643095       0.36466310       5.39814103       0.01181833      -0.11423759       0.13988843       0.00002668       0.00003184       0.00002910
C        2.94476669      -1.11367570       2.65564272      -0.06152329      -0.05129792       0.04446342      -0.00006891       0.00004712       0.00002474
O        3.60172237      -0.74929327       1.81445676       0.09922238       0.20913117      -0.19114956       0.00004296       0.00002919       0.00002944
C        1.26031473       2.37331636       0.29215284       0.03369891       0.02626081      -0.11271454      -0.00002400      -0.00000569       0.00000867
O        1.30742457       1.34204793       0.74645673       0.00086130       0.06431461      -0.03691365       0.00002604      -0.00000288       0.00001898
C        3.39442581       4.63368014      -1.75257115      -0.09382151       0.10751018       0.01988953       0.00000106      -0.00004700      -0.00000603
O        3.42725511       5.06557838      -0.71077938      -0.21017490      -0.04501241       0.02281280      -0.00005189      -0.00000946      -0.00004481
C        0.90022300       5.80278311       1.69227108       0.05542575      -0.16896155       0.09510628       0.00000796       0.00003115       0.00003518
O        1.75477522       5.29663789       2.22731690       0.04953642      -0.10108775       0.17922831       0.00000658      -0.00002268       0.00000727
C        5.11672598       6.10461994       2.24088783      -0.14500078      -0.06302578       0.03541922      -0.00000391       0.00001803      -0.00003474
O        5.13547888       4.98005341       2.15268353       0.02700581      -0.14126285      -0.03963530       0.00000459       0.00000138       0.00004487
C        3.26157271       2.97505087       4.29137605       0.17721484      -0.09306356      -0.00860573       0.00003042      -0.00003868      -0.00003229
O        3.18669992       2.34592285       3.35795523       0.20355055      -0.02187073       0.06421100       0.00004762      -0.00001780      -0.00001592
C        5.69177399       1.81160178       0.88592381      -0.09959159       0.06633794      -0.03250559      -0.00000032       0.00000880      -0.00000593
O        4.73636366       2.11319546       0.36731006       0.00764627       0.16274000      -0.05413311      -0.00004188       0.00001404       0.00005030
