2
Properties=species:S:1:pos:R:3:forces:R:3 Energy=0.0 kcal/mol=T energy=1.7763568394002505e-15 pbc="F F F"
C       -0.07311636      -0.11425678      -0.02537179       0.00000033      -0.00000042      -0.00000039
O        0.49366036      -0.83045522      -0.68769521      -0.00000033       0.00000042       0.00000039
